10
Lattice="15.0 0.0 0.0 0.0 15.0 0.0 0.0 0.0 15.0" Properties=species:S:1:pos:R:3:Z:I:1:forces:R:3 energy=-122.790978787 dipole="-1.11643917861 1.60880186084e-05 0.000167557606967" pbc="F F F"
O       7.51724327       8.62281571       7.45510108        8      -0.00168183      -0.00440018      -0.00971064 
O       7.51718201       6.37703005       7.54475601        8      -0.00133153       0.00419364       0.00756020 
O       9.49530878       7.49988070       7.49921292        8      -0.00288459       0.00011135       0.00248386 
C       6.14143123       8.24248983       7.67862774        6       0.00423151       0.01246676      -0.00474632 
C       6.14134884       6.75741869       7.32138728        6       0.00419041      -0.01242603       0.00465428 
C       8.30047063       7.49989119       7.49955059        6      -0.02142549      -0.00000392       0.00054130 
H       5.50516947       8.85108593       7.03877633        1       0.00649311      -0.00583609      -0.00740073 
H       5.89683085       8.42634585       8.72818389        1       0.00423297      -0.02217212      -0.01454421 
H       5.50508750       6.14890842       7.96131473        1       0.00681594       0.00562295       0.00752390 
H       5.89661463       6.57352712       6.27186278        1       0.00414797       0.02240903       0.01466125 
