36
Lattice="10.4394341917 0.0 0.0 0.0 10.4394341917 0.0 0.0 0.0 25.2606630469" Properties=species:S:1:pos:R:3:Z:I:1:tags:I:1:forces:R:3 energy=-62.0076095154 dipole="-3.16081671025 -3.16081671025 0.00672085612589" pbc="T T F"
Li       1.73990570       1.73990570      10.00000000        3        4      -0.00001046      -0.00001046      -0.03169923 
Li       5.21971710       1.73990570      10.00000000        3        4       0.00000000      -0.00018403      -0.03160536 
Li       8.69952849       1.73990570      10.00000000        3        4       0.00001046      -0.00001046      -0.03169923 
Li       1.73990570       5.21971710      10.00000000        3        4      -0.00018403       0.00000000      -0.03160536 
Li       5.21971710       5.21971710      10.00000000        3        4       0.00000000       0.00000000      -0.03171701 
Li       8.69952849       5.21971710      10.00000000        3        4       0.00018403       0.00000000      -0.03160536 
Li       1.73990570       8.69952849      10.00000000        3        4      -0.00001046       0.00001046      -0.03169923 
Li       5.21971710       8.69952849      10.00000000        3        4       0.00000000       0.00018403      -0.03160536 
Li       8.69952849       8.69952849      10.00000000        3        4       0.00001046       0.00001046      -0.03169923 
Li       0.00000000       0.00000000      11.73990570        3        3       0.00000000       0.00000000       0.07102250 
Li       3.47981140       0.00000000      11.73990570        3        3       0.00008963       0.00000000       0.07111776 
Li       6.95962279       0.00000000      11.73990570        3        3      -0.00008963       0.00000000       0.07111776 
Li       0.00000000       3.47981140      11.73990570        3        3       0.00000000       0.00008963       0.07111776 
Li       3.47981140       3.47981140      11.73990570        3        3       0.00004864       0.00004864       0.07149479 
Li       6.95962279       3.47981140      11.73990570        3        3      -0.00004864       0.00004864       0.07149479 
Li       0.00000000       6.95962279      11.73990570        3        3       0.00000000      -0.00008963       0.07111776 
Li       3.47981140       6.95962279      11.73990570        3        3       0.00004864      -0.00004864       0.07149479 
Li       6.95962279       6.95962279      11.73990570        3        3      -0.00004864      -0.00004864       0.07149479 
Li       1.73988599       1.73988599      13.45582025        3        2       0.00008070       0.00008070      -0.03062406 
Li       5.21971710       1.73980897      13.45566601        3        2       0.00000000       0.00041814      -0.03025167 
Li       8.69954820       1.73988599      13.45582025        3        2      -0.00008070       0.00008070      -0.03062406 
Li       1.73980897       5.21971710      13.45566601        3        2       0.00041814       0.00000000      -0.03025167 
Li       5.21971710       5.21971710      13.45564132        3        2       0.00000000       0.00000000      -0.03125572 
Li       8.69962522       5.21971710      13.45566601        3        2      -0.00041814       0.00000000      -0.03025167 
Li       1.73988599       8.69954820      13.45582025        3        2       0.00008070      -0.00008070      -0.03062406 
Li       5.21971710       8.69962522      13.45566601        3        2       0.00000000      -0.00041814      -0.03025167 
Li       8.69954820       8.69954820      13.45582025        3        2      -0.00008070      -0.00008070      -0.03062406 
Li       0.00000000       0.00000000      15.26034841        3        1       0.00000000       0.00000000      -0.00866228 
Li       3.47992775      -0.00000000      15.26042176        3        1       0.00011878       0.00000000      -0.00889502 
Li       6.95950644       0.00000000      15.26042176        3        1      -0.00011878       0.00000000      -0.00889502 
Li       0.00000000       3.47992775      15.26042176        3        1       0.00000000       0.00011878      -0.00889502 
Li       3.47985080       3.47985080      15.26066305        3        1       0.00000951       0.00000951      -0.00908008 
Li       6.95958339       3.47985080      15.26066305        3        1      -0.00000951       0.00000951      -0.00908008 
Li       0.00000000       6.95950644      15.26042176        3        1       0.00000000      -0.00011878      -0.00889502 
Li       3.47985080       6.95958339      15.26066305        3        1       0.00000951      -0.00000951      -0.00908008 
Li       6.95958339       6.95958339      15.26066305        3        1      -0.00000951      -0.00000951      -0.00908008 
