8
Lattice="15.0 0.0 0.0 0.0 15.0 0.0 0.0 0.0 15.0" Properties=species:S:1:pos:R:3:Z:I:1:forces:R:3 energy=-154.574407565 dipole="1.38168411403 0.174214337692 0.141779184753" pbc="F F F"
F       7.91047352       7.90817317       6.28421608        9       0.02111398      -0.02013956       0.01998581 
F       7.61710793       8.53439364       8.48439786        9      -0.00780536       0.00759652       0.01940196 
F       5.81481243       7.03178157       8.69851757        9       0.00270748      -0.00553156       0.00056796 
F       5.79382303       8.64513288       7.00056340        9      -0.01951738       0.02995011      -0.02783482 
F       6.12709388       6.38097556       6.46149305        9      -0.00778947       0.02909259      -0.02155444 
F       7.94365489       6.31854706       7.95290074        9      -0.00293226       0.02095904      -0.00044788 
P       6.74678828       7.45319081       7.46916443       15      -0.01488683       0.00801425      -0.00287483 
Li       9.18282680       7.76531850       7.71402399        3      -0.02337828      -0.01667275      -0.02256598 
